# polymer data file

50 atoms 
49 bonds 
48 angles

3 atom types 
1 bond types 
1 angle types

-300 300 xlo xhi 
-300 300 ylo yhi 
-300 300 zlo zhi 

Masses 

     1     1 
     2     1
     3     1

Atoms 

     1     1     2     0.0     0.0     0.0 
     2     1     3     1.0     0.0     0.0 
     3     1     1     2.0     0.0     0.0 
     4     1     1     3.0     0.0     0.0 
     5     1     1     4.0     0.0     0.0 
     6     1     1     5.0     0.0     0.0 
     7     1     1     6.0     0.0     0.0 
     8     1     1     7.0     0.0     0.0 
     9     1     1     8.0     0.0     0.0 
    10     1     1     9.0     0.0     0.0 
    11     1     1    10.0     0.0     0.0 
    12     1     1    11.0     0.0     0.0 
    13     1     1    12.0     0.0     0.0 
    14     1     1    13.0     0.0     0.0 
    15     1     1    14.0     0.0     0.0 
    16     1     1    15.0     0.0     0.0 
    17     1     1    16.0     0.0     0.0 
    18     1     1    17.0     0.0     0.0 
    19     1     1    18.0     0.0     0.0 
    20     1     1    19.0     0.0     0.0 
    21     1     1    20.0     0.0     0.0 
    22     1     1    21.0     0.0     0.0 
    23     1     1    22.0     0.0     0.0 
    24     1     1    23.0     0.0     0.0 
    25     1     1    24.0     0.0     0.0 
    26     1     1    25.0     0.0     0.0 
    27     1     1    26.0     0.0     0.0 
    28     1     1    27.0     0.0     0.0 
    29     1     1    28.0     0.0     0.0 
    30     1     1    29.0     0.0     0.0 
    31     1     1    30.0     0.0     0.0 
    32     1     1    31.0     0.0     0.0 
    33     1     1    32.0     0.0     0.0 
    34     1     1    33.0     0.0     0.0 
    35     1     1    34.0     0.0     0.0 
    36     1     1    35.0     0.0     0.0 
    37     1     1    36.0     0.0     0.0 
    38     1     1    37.0     0.0     0.0 
    39     1     1    38.0     0.0     0.0 
    40     1     1    39.0     0.0     0.0 
    41     1     1    40.0     0.0     0.0 
    42     1     1    41.0     0.0     0.0 
    43     1     1    42.0     0.0     0.0 
    44     1     1    43.0     0.0     0.0 
    45     1     1    44.0     0.0     0.0 
    46     1     1    45.0     0.0     0.0 
    47     1     1    46.0     0.0     0.0 
    48     1     1    47.0     0.0     0.0 
    49     1     1    48.0     0.0     0.0 
    50     1     3    49.0     0.0     0.0 

Bonds 

     1     1     1     2 
     2     1     2     3 
     3     1     3     4 
     4     1     4     5 
     5     1     5     6 
     6     1     6     7 
     7     1     7     8 
     8     1     8     9 
     9     1     9    10 
    10     1    10    11 
    11     1    11    12 
    12     1    12    13 
    13     1    13    14 
    14     1    14    15 
    15     1    15    16 
    16     1    16    17 
    17     1    17    18 
    18     1    18    19 
    19     1    19    20 
    20     1    20    21 
    21     1    21    22 
    22     1    22    23 
    23     1    23    24 
    24     1    24    25 
    25     1    25    26 
    26     1    26    27 
    27     1    27    28 
    28     1    28    29 
    29     1    29    30 
    30     1    30    31 
    31     1    31    32
    32     1    32    33
    33     1    33    34
    34     1    34    35
    35     1    35    36
    36     1    36    37
    37     1    37    38
    38     1    38    39
    39     1    39    40
    40     1    40    41
    41     1    41    42
    42     1    42    43
    43     1    43    44
    44     1    44    45
    45     1    45    46
    46     1    46    47
    47     1    47    48
    48     1    48    49
    49     1    49    50

Angles

     1     1     1     2     3
     2     1     2     3     4
     3     1     3     4     5
     4     1     4     5     6
     5     1     5     6     7
     6     1     6     7     8
     7     1     7     8     9
     8     1     8     9    10
     9     1     9    10    11
    10     1    10    11    12
    11     1    11    12    13
    12     1    12    13    14
    13     1    13    14    15
    14     1    14    15    16
    15     1    15    16    17
    16     1    16    17    18
    17     1    17    18    19
    18     1    18    19    20
    19     1    19    20    21
    20     1    20    21    22
    21     1    21    22    23
    22     1    22    23    24
    23     1    23    24    25
    24     1    24    25    26
    25     1    25    26    27
    26     1    26    27    28
    27     1    27    28    29
    28     1    28    29    30
    29     1    29    30    31
    30     1    30    31    32
    31     1    31    32    33
    32     1    32    33    34
    33     1    33    34    35
    34     1    34    35    36
    35     1    35    36    37
    36     1    36    37    38
    37     1    37    38    39
    38     1    38    39    40
    39     1    39    40    41
    40     1    40    41    42
    41     1    41    42    43
    42     1    42    43    44
    43     1    43    44    45
    44     1    44    45    46
    45     1    45    46    47
    46     1    46    47    48
    47     1    47    48    49
    48     1    48    49    50
